/*--------------------------------*- C++ -*----------------------------------*\
| =========                 |                                                 |
| \\      /  F ield         | OpenFOAM: The Open Source CFD Toolbox           |
|  \\    /   O peration     | Version:  2406                                  |
|   \\  /    A nd           | Website:  www.openfoam.com                      |
|    \\/     M anipulation  |                                                 |
\*---------------------------------------------------------------------------*/
FoamFile
{
    version     2.0;
    format      ascii;
    arch        "LSB;label=32;scalar=64";
    class       surfaceScalarField;
    location    "10";
    object      phi;
}
// * * * * * * * * * * * * * * * * * * * * * * * * * * * * * * * * * * * * * //

dimensions      [0 3 -1 0 0 0 0];

oriented        oriented;

internalField   uniform -0;

boundaryField
{
    inlet
    {
        type            calculated;
        value           nonuniform List<scalar> 
1156
(
-1.00463e-05
-1.05352e-05
-1.05352e-05
-1.12145e-05
-1.12081e-05
-1.15796e-05
-1.18875e-05
-1.23762e-05
-1.12081e-05
-1.18875e-05
-1.15796e-05
-1.23762e-05
-1.26385e-05
-1.31782e-05
-1.31782e-05
-1.37509e-05
-1.18514e-05
-1.18535e-05
-1.26078e-05
-1.26371e-05
-1.17996e-05
-1.171e-05
-1.25661e-05
-1.24784e-05
-1.34232e-05
-1.34437e-05
-1.4003e-05
-1.40145e-05
-1.33615e-05
-1.32652e-05
-1.39197e-05
-1.38144e-05
-1.18513e-05
-1.26077e-05
-1.18534e-05
-1.2637e-05
-1.34231e-05
-1.40029e-05
-1.34437e-05
-1.40145e-05
-1.17996e-05
-1.2566e-05
-1.171e-05
-1.24784e-05
-1.33614e-05
-1.39197e-05
-1.32652e-05
-1.38144e-05
-1.42524e-05
-1.42546e-05
-1.42546e-05
-1.42486e-05
-1.41502e-05
-1.40384e-05
-1.41386e-05
-1.40241e-05
-1.41502e-05
-1.41386e-05
-1.40384e-05
-1.40241e-05
-1.40266e-05
-1.39123e-05
-1.39123e-05
-1.37995e-05
-1.16428e-05
-1.16004e-05
-1.24091e-05
-1.23662e-05
-1.15791e-05
-1.15694e-05
-1.23436e-05
-1.2333e-05
-1.31925e-05
-1.31484e-05
-1.37374e-05
-1.36919e-05
-1.31254e-05
-1.31148e-05
-1.36688e-05
-1.36584e-05
-1.15656e-05
-1.15643e-05
-1.23287e-05
-1.23271e-05
-1.15636e-05
-1.15637e-05
-1.23263e-05
-1.23264e-05
-1.31104e-05
-1.31087e-05
-1.36541e-05
-1.36525e-05
-1.31081e-05
-1.31079e-05
-1.3652e-05
-1.36518e-05
-1.39585e-05
-1.39123e-05
-1.39436e-05
-1.38978e-05
-1.38894e-05
-1.38793e-05
-1.38755e-05
-1.38658e-05
-1.38328e-05
-1.37882e-05
-1.37218e-05
-1.36786e-05
-1.37668e-05
-1.37577e-05
-1.36581e-05
-1.36494e-05
-1.38752e-05
-1.38738e-05
-1.3862e-05
-1.38607e-05
-1.38733e-05
-1.38732e-05
-1.38604e-05
-1.38603e-05
-1.37542e-05
-1.3753e-05
-1.36462e-05
-1.36452e-05
-1.37527e-05
-1.37527e-05
-1.36448e-05
-1.36449e-05
-1.16428e-05
-1.24092e-05
-1.16005e-05
-1.23663e-05
-1.31925e-05
-1.37374e-05
-1.31484e-05
-1.36919e-05
-1.15791e-05
-1.23436e-05
-1.15694e-05
-1.2333e-05
-1.31254e-05
-1.36688e-05
-1.31148e-05
-1.36584e-05
-1.39585e-05
-1.39436e-05
-1.39123e-05
-1.38978e-05
-1.38328e-05
-1.37218e-05
-1.37882e-05
-1.36786e-05
-1.38894e-05
-1.38755e-05
-1.38793e-05
-1.38658e-05
-1.37668e-05
-1.36581e-05
-1.37577e-05
-1.36495e-05
-1.15656e-05
-1.23287e-05
-1.15642e-05
-1.23271e-05
-1.31104e-05
-1.36541e-05
-1.31087e-05
-1.36525e-05
-1.15638e-05
-1.23265e-05
-1.15638e-05
-1.23264e-05
-1.31081e-05
-1.3652e-05
-1.3108e-05
-1.36518e-05
-1.38752e-05
-1.38621e-05
-1.38738e-05
-1.38607e-05
-1.37542e-05
-1.36463e-05
-1.3753e-05
-1.36452e-05
-1.38733e-05
-1.38603e-05
-1.38732e-05
-1.38602e-05
-1.37527e-05
-1.36449e-05
-1.37525e-05
-1.36447e-05
-1.36457e-05
-1.36037e-05
-1.36037e-05
-1.35624e-05
-1.35838e-05
-1.35755e-05
-1.3543e-05
-1.35349e-05
-1.35838e-05
-1.3543e-05
-1.35756e-05
-1.3535e-05
-1.35238e-05
-1.35159e-05
-1.35159e-05
-1.35081e-05
-1.35725e-05
-1.35715e-05
-1.3532e-05
-1.35311e-05
-1.35712e-05
-1.35713e-05
-1.35308e-05
-1.35309e-05
-1.3513e-05
-1.35121e-05
-1.35052e-05
-1.35043e-05
-1.35118e-05
-1.35119e-05
-1.3504e-05
-1.35041e-05
-1.35725e-05
-1.3532e-05
-1.35716e-05
-1.35311e-05
-1.35131e-05
-1.35052e-05
-1.35121e-05
-1.35043e-05
-1.35713e-05
-1.35308e-05
-1.35711e-05
-1.35307e-05
-1.35119e-05
-1.35041e-05
-1.35117e-05
-1.35039e-05
-1.35024e-05
-1.35015e-05
-1.35015e-05
-1.35006e-05
-1.35012e-05
-1.35013e-05
-1.35003e-05
-1.35003e-05
-1.35012e-05
-1.35003e-05
-1.35011e-05
-1.35002e-05
-1.35e-05
-1.35001e-05
-1.34999e-05
-1.35e-05
-1.15637e-05
-1.15639e-05
-1.23264e-05
-1.23264e-05
-1.15642e-05
-1.15656e-05
-1.23271e-05
-1.23287e-05
-1.3108e-05
-1.3108e-05
-1.36519e-05
-1.3652e-05
-1.31087e-05
-1.31104e-05
-1.36526e-05
-1.36541e-05
-1.15694e-05
-1.15791e-05
-1.2333e-05
-1.23435e-05
-1.16004e-05
-1.16428e-05
-1.23662e-05
-1.24091e-05
-1.31148e-05
-1.31254e-05
-1.36584e-05
-1.36688e-05
-1.31484e-05
-1.31925e-05
-1.36919e-05
-1.37374e-05
-1.38732e-05
-1.38733e-05
-1.38602e-05
-1.38603e-05
-1.38738e-05
-1.38752e-05
-1.38607e-05
-1.3862e-05
-1.37526e-05
-1.37526e-05
-1.36448e-05
-1.36448e-05
-1.3753e-05
-1.37542e-05
-1.36451e-05
-1.36462e-05
-1.38792e-05
-1.38894e-05
-1.38658e-05
-1.38755e-05
-1.39123e-05
-1.39585e-05
-1.38978e-05
-1.39436e-05
-1.37577e-05
-1.37668e-05
-1.36494e-05
-1.36581e-05
-1.37882e-05
-1.38328e-05
-1.36786e-05
-1.37218e-05
-1.171e-05
-1.17996e-05
-1.24784e-05
-1.25661e-05
-1.18534e-05
-1.18514e-05
-1.26371e-05
-1.26077e-05
-1.32652e-05
-1.33614e-05
-1.38144e-05
-1.39197e-05
-1.34437e-05
-1.34232e-05
-1.40145e-05
-1.4003e-05
-1.15797e-05
-1.12081e-05
-1.23762e-05
-1.18875e-05
-1.05352e-05
-1.00463e-05
-1.12145e-05
-1.05351e-05
-1.31782e-05
-1.26385e-05
-1.37509e-05
-1.31782e-05
-1.18875e-05
-1.12081e-05
-1.23762e-05
-1.15796e-05
-1.40384e-05
-1.41502e-05
-1.40241e-05
-1.41386e-05
-1.42546e-05
-1.42524e-05
-1.42486e-05
-1.42546e-05
-1.39123e-05
-1.40266e-05
-1.37995e-05
-1.39123e-05
-1.41386e-05
-1.41502e-05
-1.40241e-05
-1.40384e-05
-1.40029e-05
-1.34231e-05
-1.40145e-05
-1.34437e-05
-1.26077e-05
-1.18513e-05
-1.2637e-05
-1.18534e-05
-1.39197e-05
-1.33614e-05
-1.38144e-05
-1.32652e-05
-1.2566e-05
-1.17996e-05
-1.24784e-05
-1.171e-05
-1.35712e-05
-1.35712e-05
-1.35308e-05
-1.35307e-05
-1.35715e-05
-1.35725e-05
-1.3531e-05
-1.3532e-05
-1.35119e-05
-1.35118e-05
-1.35041e-05
-1.3504e-05
-1.35121e-05
-1.3513e-05
-1.35043e-05
-1.35052e-05
-1.35756e-05
-1.35838e-05
-1.35349e-05
-1.3543e-05
-1.36037e-05
-1.36457e-05
-1.35624e-05
-1.36037e-05
-1.35159e-05
-1.35238e-05
-1.35081e-05
-1.35159e-05
-1.3543e-05
-1.35838e-05
-1.3535e-05
-1.35756e-05
-1.35013e-05
-1.35012e-05
-1.35004e-05
-1.35003e-05
-1.35015e-05
-1.35024e-05
-1.35006e-05
-1.35015e-05
-1.35001e-05
-1.35e-05
-1.35001e-05
-1.35e-05
-1.35003e-05
-1.35012e-05
-1.35003e-05
-1.35011e-05
-1.35052e-05
-1.3513e-05
-1.35043e-05
-1.35121e-05
-1.3532e-05
-1.35725e-05
-1.35311e-05
-1.35716e-05
-1.35041e-05
-1.35119e-05
-1.35039e-05
-1.35118e-05
-1.35308e-05
-1.35713e-05
-1.35307e-05
-1.35711e-05
-1.37218e-05
-1.38328e-05
-1.36786e-05
-1.37882e-05
-1.39436e-05
-1.39585e-05
-1.38978e-05
-1.39123e-05
-1.36581e-05
-1.37668e-05
-1.36494e-05
-1.37577e-05
-1.38754e-05
-1.38894e-05
-1.38658e-05
-1.38792e-05
-1.37374e-05
-1.31925e-05
-1.36919e-05
-1.31484e-05
-1.24092e-05
-1.16428e-05
-1.23663e-05
-1.16005e-05
-1.36688e-05
-1.31254e-05
-1.36584e-05
-1.31148e-05
-1.23436e-05
-1.15791e-05
-1.2333e-05
-1.15694e-05
-1.36462e-05
-1.37542e-05
-1.36452e-05
-1.3753e-05
-1.38621e-05
-1.38752e-05
-1.38608e-05
-1.38738e-05
-1.36449e-05
-1.37527e-05
-1.36448e-05
-1.37526e-05
-1.38604e-05
-1.38733e-05
-1.38602e-05
-1.38732e-05
-1.36541e-05
-1.31104e-05
-1.36525e-05
-1.31087e-05
-1.23287e-05
-1.15656e-05
-1.23271e-05
-1.15643e-05
-1.3652e-05
-1.31081e-05
-1.36518e-05
-1.3108e-05
-1.23265e-05
-1.15638e-05
-1.23264e-05
-1.15637e-05
-1.15638e-05
-1.23265e-05
-1.15637e-05
-1.23262e-05
-1.31081e-05
-1.36519e-05
-1.3108e-05
-1.36521e-05
-1.15642e-05
-1.23271e-05
-1.15656e-05
-1.23287e-05
-1.31087e-05
-1.36526e-05
-1.31103e-05
-1.36541e-05
-1.38732e-05
-1.38602e-05
-1.38733e-05
-1.38604e-05
-1.37526e-05
-1.36448e-05
-1.37527e-05
-1.36449e-05
-1.38738e-05
-1.38608e-05
-1.38752e-05
-1.3862e-05
-1.3753e-05
-1.36452e-05
-1.37542e-05
-1.36462e-05
-1.15694e-05
-1.2333e-05
-1.15791e-05
-1.23436e-05
-1.31148e-05
-1.36584e-05
-1.31254e-05
-1.36688e-05
-1.16005e-05
-1.23663e-05
-1.16429e-05
-1.24092e-05
-1.31484e-05
-1.3692e-05
-1.31925e-05
-1.37374e-05
-1.38792e-05
-1.38658e-05
-1.38894e-05
-1.38755e-05
-1.37577e-05
-1.36495e-05
-1.37668e-05
-1.36581e-05
-1.39123e-05
-1.38978e-05
-1.39585e-05
-1.39436e-05
-1.37882e-05
-1.36786e-05
-1.38328e-05
-1.37218e-05
-1.35712e-05
-1.35308e-05
-1.35713e-05
-1.35308e-05
-1.35118e-05
-1.3504e-05
-1.35119e-05
-1.35041e-05
-1.35716e-05
-1.35311e-05
-1.35725e-05
-1.3532e-05
-1.35121e-05
-1.35043e-05
-1.3513e-05
-1.35052e-05
-1.35012e-05
-1.35003e-05
-1.35012e-05
-1.35003e-05
-1.35e-05
-1.35001e-05
-1.35e-05
-1.35e-05
-1.35015e-05
-1.35005e-05
-1.35023e-05
-1.35014e-05
-1.35003e-05
-1.35004e-05
-1.35012e-05
-1.35013e-05
-1.35756e-05
-1.3535e-05
-1.35838e-05
-1.3543e-05
-1.35159e-05
-1.35081e-05
-1.35238e-05
-1.35159e-05
-1.36037e-05
-1.35624e-05
-1.36457e-05
-1.36037e-05
-1.3543e-05
-1.35349e-05
-1.35838e-05
-1.35756e-05
-1.35052e-05
-1.35043e-05
-1.3513e-05
-1.35121e-05
-1.3504e-05
-1.35041e-05
-1.35118e-05
-1.35119e-05
-1.3532e-05
-1.35311e-05
-1.35725e-05
-1.35715e-05
-1.35308e-05
-1.35309e-05
-1.35712e-05
-1.35713e-05
-1.171e-05
-1.24784e-05
-1.17996e-05
-1.2566e-05
-1.32652e-05
-1.38144e-05
-1.33614e-05
-1.39197e-05
-1.18534e-05
-1.2637e-05
-1.18513e-05
-1.26077e-05
-1.34437e-05
-1.40145e-05
-1.34231e-05
-1.40029e-05
-1.40384e-05
-1.40241e-05
-1.41502e-05
-1.41386e-05
-1.39123e-05
-1.37995e-05
-1.40266e-05
-1.39123e-05
-1.42546e-05
-1.42486e-05
-1.42524e-05
-1.42546e-05
-1.41386e-05
-1.40241e-05
-1.41502e-05
-1.40384e-05
-1.15796e-05
-1.23762e-05
-1.12081e-05
-1.18875e-05
-1.31782e-05
-1.37509e-05
-1.26385e-05
-1.31782e-05
-1.05352e-05
-1.12145e-05
-1.00463e-05
-1.05352e-05
-1.18875e-05
-1.23762e-05
-1.12081e-05
-1.15796e-05
-1.4003e-05
-1.40145e-05
-1.34232e-05
-1.34437e-05
-1.39197e-05
-1.38144e-05
-1.33615e-05
-1.32652e-05
-1.26078e-05
-1.26371e-05
-1.18514e-05
-1.18535e-05
-1.25661e-05
-1.24784e-05
-1.17996e-05
-1.171e-05
-1.37218e-05
-1.36786e-05
-1.38328e-05
-1.37882e-05
-1.36581e-05
-1.36494e-05
-1.37668e-05
-1.37577e-05
-1.39436e-05
-1.38978e-05
-1.39585e-05
-1.39123e-05
-1.38755e-05
-1.38658e-05
-1.38894e-05
-1.38792e-05
-1.36462e-05
-1.36451e-05
-1.37542e-05
-1.3753e-05
-1.36448e-05
-1.36448e-05
-1.37526e-05
-1.37526e-05
-1.3862e-05
-1.38607e-05
-1.38752e-05
-1.38738e-05
-1.38603e-05
-1.38602e-05
-1.38733e-05
-1.38731e-05
-1.37374e-05
-1.36919e-05
-1.31925e-05
-1.31484e-05
-1.36688e-05
-1.36584e-05
-1.31254e-05
-1.31148e-05
-1.24091e-05
-1.23662e-05
-1.16428e-05
-1.16005e-05
-1.23436e-05
-1.2333e-05
-1.15791e-05
-1.15694e-05
-1.36541e-05
-1.36525e-05
-1.31104e-05
-1.31087e-05
-1.3652e-05
-1.36518e-05
-1.31081e-05
-1.3108e-05
-1.23287e-05
-1.2327e-05
-1.15656e-05
-1.15642e-05
-1.23263e-05
-1.23266e-05
-1.15636e-05
-1.15639e-05
-1.35002e-05
-1.35e-05
-1.35e-05
-1.35e-05
-1.35003e-05
-1.35012e-05
-1.35003e-05
-1.35012e-05
-1.35003e-05
-1.35003e-05
-1.35012e-05
-1.35012e-05
-1.35006e-05
-1.35015e-05
-1.35015e-05
-1.35024e-05
-1.3504e-05
-1.35118e-05
-1.35041e-05
-1.35119e-05
-1.35307e-05
-1.35712e-05
-1.35308e-05
-1.35712e-05
-1.35043e-05
-1.35121e-05
-1.35052e-05
-1.3513e-05
-1.35311e-05
-1.35715e-05
-1.3532e-05
-1.35725e-05
-1.35041e-05
-1.3504e-05
-1.35119e-05
-1.35118e-05
-1.35043e-05
-1.35052e-05
-1.35121e-05
-1.3513e-05
-1.35308e-05
-1.35308e-05
-1.35713e-05
-1.35712e-05
-1.35311e-05
-1.3532e-05
-1.35715e-05
-1.35725e-05
-1.35081e-05
-1.35159e-05
-1.35159e-05
-1.35238e-05
-1.3535e-05
-1.35756e-05
-1.3543e-05
-1.35838e-05
-1.3535e-05
-1.3543e-05
-1.35756e-05
-1.35838e-05
-1.35624e-05
-1.36037e-05
-1.36037e-05
-1.36457e-05
-1.36448e-05
-1.37525e-05
-1.36448e-05
-1.37527e-05
-1.38602e-05
-1.38732e-05
-1.38603e-05
-1.38733e-05
-1.36452e-05
-1.3753e-05
-1.36462e-05
-1.37542e-05
-1.38607e-05
-1.38738e-05
-1.3862e-05
-1.38752e-05
-1.36519e-05
-1.31078e-05
-1.36521e-05
-1.31082e-05
-1.23262e-05
-1.15637e-05
-1.23264e-05
-1.15636e-05
-1.36526e-05
-1.31087e-05
-1.36541e-05
-1.31104e-05
-1.23271e-05
-1.15643e-05
-1.23287e-05
-1.15656e-05
-1.36495e-05
-1.37577e-05
-1.36581e-05
-1.37668e-05
-1.38658e-05
-1.38793e-05
-1.38755e-05
-1.38894e-05
-1.36786e-05
-1.37882e-05
-1.37218e-05
-1.38328e-05
-1.38978e-05
-1.39123e-05
-1.39436e-05
-1.39585e-05
-1.36584e-05
-1.31148e-05
-1.36688e-05
-1.31254e-05
-1.2333e-05
-1.15694e-05
-1.23436e-05
-1.15791e-05
-1.3692e-05
-1.31484e-05
-1.37374e-05
-1.31925e-05
-1.23663e-05
-1.16005e-05
-1.24092e-05
-1.16428e-05
-1.36449e-05
-1.36448e-05
-1.37526e-05
-1.37527e-05
-1.36452e-05
-1.36462e-05
-1.3753e-05
-1.37542e-05
-1.38603e-05
-1.38603e-05
-1.38732e-05
-1.38733e-05
-1.38607e-05
-1.3862e-05
-1.38738e-05
-1.38752e-05
-1.36495e-05
-1.36581e-05
-1.37577e-05
-1.37668e-05
-1.36786e-05
-1.37218e-05
-1.37882e-05
-1.38328e-05
-1.38658e-05
-1.38755e-05
-1.38793e-05
-1.38894e-05
-1.38978e-05
-1.39436e-05
-1.39123e-05
-1.39585e-05
-1.36519e-05
-1.3652e-05
-1.3108e-05
-1.3108e-05
-1.36525e-05
-1.36541e-05
-1.31087e-05
-1.31104e-05
-1.23265e-05
-1.23262e-05
-1.15638e-05
-1.15637e-05
-1.23271e-05
-1.23287e-05
-1.15642e-05
-1.15656e-05
-1.36584e-05
-1.36688e-05
-1.31148e-05
-1.31254e-05
-1.36919e-05
-1.37374e-05
-1.31484e-05
-1.31925e-05
-1.2333e-05
-1.23435e-05
-1.15694e-05
-1.15791e-05
-1.23662e-05
-1.24091e-05
-1.16004e-05
-1.16428e-05
-1.37995e-05
-1.39123e-05
-1.39123e-05
-1.40266e-05
-1.40241e-05
-1.40384e-05
-1.41386e-05
-1.41502e-05
-1.40241e-05
-1.41386e-05
-1.40384e-05
-1.41502e-05
-1.42486e-05
-1.42546e-05
-1.42546e-05
-1.42524e-05
-1.38144e-05
-1.32652e-05
-1.39197e-05
-1.33614e-05
-1.24784e-05
-1.171e-05
-1.2566e-05
-1.17996e-05
-1.40145e-05
-1.34437e-05
-1.40029e-05
-1.34231e-05
-1.2637e-05
-1.18534e-05
-1.26077e-05
-1.18513e-05
-1.38144e-05
-1.39197e-05
-1.32652e-05
-1.33614e-05
-1.40145e-05
-1.4003e-05
-1.34437e-05
-1.34232e-05
-1.24784e-05
-1.25661e-05
-1.171e-05
-1.17996e-05
-1.26371e-05
-1.26077e-05
-1.18534e-05
-1.18514e-05
-1.37509e-05
-1.31782e-05
-1.31782e-05
-1.26385e-05
-1.23762e-05
-1.15796e-05
-1.18875e-05
-1.12081e-05
-1.23762e-05
-1.18875e-05
-1.15797e-05
-1.12081e-05
-1.12145e-05
-1.05351e-05
-1.05352e-05
-1.00463e-05
-9.82524e-06
-9.82523e-06
-9.88197e-06
-1.10493e-05
-1.09725e-05
-1.15334e-05
-1.13506e-05
-1.13612e-05
-1.12327e-05
-1.11707e-05
-1.11274e-05
-1.11106e-05
-1.11031e-05
-1.11006e-05
-1.11e-05
-1.10997e-05
-1.10997e-05
-1.10997e-05
-9.88197e-06
-9.82524e-06
-1.10493e-05
-1.09725e-05
-1.15334e-05
-1.13506e-05
-1.13612e-05
-1.12327e-05
-1.11707e-05
-9.88193e-06
-9.82522e-06
-1.10493e-05
-1.09724e-05
-1.15334e-05
-9.88195e-06
-1.10493e-05
-1.09724e-05
-1.15334e-05
-1.13506e-05
-1.13612e-05
-1.12327e-05
-1.11707e-05
-1.13505e-05
-1.13612e-05
-1.11274e-05
-1.11106e-05
-1.11031e-05
-1.11006e-05
-1.10999e-05
-1.10997e-05
-1.10998e-05
-1.10997e-05
-1.11e-05
-1.11274e-05
-1.11106e-05
-1.11031e-05
-1.11006e-05
-1.10999e-05
-1.10997e-05
-1.10997e-05
-1.10998e-05
-1.12327e-05
-1.11707e-05
-1.10998e-05
-1.10999e-05
-1.11006e-05
-1.1103e-05
-1.10997e-05
-1.10998e-05
-1.11007e-05
-1.11031e-05
-1.11106e-05
-1.11274e-05
-1.11707e-05
-1.12327e-05
-1.13612e-05
-1.13505e-05
-1.15334e-05
-1.09724e-05
-1.11106e-05
-1.11274e-05
-1.11707e-05
-1.12327e-05
-1.10493e-05
-9.88195e-06
-9.82523e-06
-1.10998e-05
-1.10999e-05
-1.11006e-05
-1.11031e-05
-1.11274e-05
-1.11106e-05
-1.11031e-05
-1.11006e-05
-1.11106e-05
-1.11274e-05
-1.11707e-05
-1.12327e-05
-1.10998e-05
-1.10999e-05
-1.11006e-05
-1.1103e-05
-1.11106e-05
-1.11274e-05
-1.11707e-05
-1.12327e-05
-1.11e-05
-1.10998e-05
-1.13612e-05
-1.13505e-05
-1.13612e-05
-1.13506e-05
-1.15334e-05
-1.09725e-05
-1.10493e-05
-9.88203e-06
-9.82528e-06
-1.10998e-05
-1.15334e-05
-1.09724e-05
-1.13612e-05
-1.13506e-05
-1.15334e-05
-1.09725e-05
-1.10493e-05
-9.88193e-06
-1.10493e-05
-9.88203e-06
-9.82522e-06
-9.82528e-06
-8.99993e-06
-8.99993e-06
-8.99994e-06
-8.99994e-06
)
;
    }
    outlet
    {
        type            calculated;
        value           uniform 0;
    }
    heat_sink
    {
        type            calculated;
        value           uniform 0;
    }
    walls
    {
        type            calculated;
        value           uniform 0;
    }
}


// ************************************************************************* //
