/*--------------------------------*- C++ -*----------------------------------*\
| =========                 |                                                 |
| \\      /  F ield         | OpenFOAM: The Open Source CFD Toolbox           |
|  \\    /   O peration     | Version:  2406                                  |
|   \\  /    A nd           | Website:  www.openfoam.com                      |
|    \\/     M anipulation  |                                                 |
\*---------------------------------------------------------------------------*/
FoamFile
{
    version     2.0;
    format      ascii;
    arch        "LSB;label=32;scalar=64";
    class       volScalarField;
    location    "10";
    object      T;
}
// * * * * * * * * * * * * * * * * * * * * * * * * * * * * * * * * * * * * * //

dimensions      [0 0 0 1 0 0 0];

internalField   nonuniform List<scalar> 
186288
(
535.976
537.002
537.229
542.446
543.518
541.685
541.613
540.435
540.689
540.154
540.033
539.798
539.697
539.643
539.629
539.625
539.625
539.625
539.624
539.624
539.624
539.624
539.625
539.625
539.625
539.629
539.643
539.697
539.798
540.034
540.154
540.689
540.435
541.614
541.686
543.519
542.446
543.519
541.685
541.613
540.435
540.689
540.154
540.033
539.798
539.697
539.643
539.629
539.625
539.625
539.625
539.624
539.624
539.624
539.624
539.625
539.625
539.625
539.629
539.643
539.697
539.798
540.033
540.154
540.689
540.435
541.614
541.686
543.519
542.446
543.519
541.685
541.613
540.435
540.689
540.154
540.034
539.798
539.697
539.643
539.629
539.625
539.625
539.625
539.624
539.624
539.624
539.625
539.625
539.625
539.625
539.629
539.643
539.697
539.798
540.034
540.154
540.689
540.435
541.613
541.685
543.518
542.446
543.519
541.685
541.613
540.435
540.689
540.154
540.034
539.798
539.697
539.643
539.629
539.625
539.625
539.625
539.624
539.624
539.624
539.624
539.625
539.625
539.625
539.629
539.643
539.697
539.798
540.034
540.154
540.689
540.435
541.613
541.685
543.518
540.695
537.825
536.857
536.155
536.119
535.771
535.588
535.403
535.31
535.264
535.249
535.244
535.243
535.243
535.242
535.242
535.242
535.242
535.243
535.243
535.244
535.249
535.264
535.31
535.403
535.588
535.771
536.119
536.155
536.857
537.825
540.695
537.825
536.857
536.155
536.119
535.771
535.588
535.403
535.31
535.264
535.249
535.245
535.243
535.243
535.242
535.242
535.242
535.242
535.243
535.243
535.245
535.249
535.264
535.31
535.403
535.588
535.771
536.119
536.155
536.857
537.825
540.695
537.825
534.463
533.047
532.62
532.478
532.231
532.004
531.832
531.736
531.691
531.674
531.668
531.667
531.666
531.665
531.665
531.665
531.665
531.666
531.667
531.668
531.674
531.691
531.736
531.832
532.004
532.231
532.478
532.62
533.047
534.463
533.047
531.544
531.252
531.155
530.946
530.71
530.534
530.433
530.386
530.369
530.363
530.361
530.36
530.36
530.359
530.359
530.36
530.36
530.361
530.363
530.369
530.386
530.433
530.534
530.71
530.946
531.155
531.252
531.544
533.047
536.857
536.155
532.62
531.252
531.089
531.077
530.912
530.688
530.511
530.409
530.362
530.345
530.339
530.337
530.337
530.336
530.335
530.335
530.336
530.336
530.337
530.339
530.345
530.362
530.409
530.511
530.688
530.912
531.077
531.089
531.252
532.62
532.478
531.155
531.077
531.142
531.026
530.828
530.662
530.565
530.52
530.504
530.499
530.497
530.496
530.496
530.496
530.496
530.496
530.496
530.497
530.499
530.504
530.52
530.565
530.662
530.828
531.026
531.142
531.077
531.155
532.478
536.119
535.771
532.231
530.946
530.912
531.026
530.954
530.787
530.64
530.552
530.512
530.498
530.494
530.493
530.493
530.492
530.492
530.492
530.492
530.493
530.493
530.494
530.498
530.512
530.552
530.64
530.787
530.954
531.026
530.912
530.946
532.231
532.004
530.71
530.688
530.828
530.787
530.647
530.52
530.444
530.41
530.399
530.396
530.395
530.395
530.395
530.394
530.394
530.395
530.395
530.395
530.396
530.399
530.41
530.444
530.52
530.647
530.787
530.828
530.688
530.71
532.004
535.588
535.403
531.832
530.534
530.511
530.662
530.64
530.52
530.409
530.343
530.315
530.306
530.304
530.304
530.304
530.304
530.303
530.303
530.304
530.304
530.304
530.304
530.306
530.315
530.343
530.409
530.52
530.64
530.662
530.511
530.534
531.832
531.735
530.433
530.409
530.565
530.552
530.444
530.343
530.285
530.261
530.254
530.253
530.253
530.253
530.253
530.252
530.252
530.252
530.253
530.253
530.253
530.254
530.261
530.285
530.343
530.444
530.552
530.565
530.409
530.433
531.735
535.31
535.264
531.69
530.386
530.362
530.52
530.512
530.41
530.315
530.261
530.239
530.233
530.233
530.233
530.233
530.233
530.232
530.232
530.233
530.233
530.233
530.233
530.233
530.239
530.261
530.315
530.41
530.512
530.52
530.362
530.386
531.69
531.674
530.369
530.345
530.503
530.498
530.399
530.306
530.254
530.233
530.228
530.228
530.229
530.229
530.228
530.228
530.228
530.228
530.228
530.229
530.228
530.228
530.233
530.254
530.306
530.399
530.498
530.504
530.345
530.369
531.674
535.249
535.244
531.668
530.363
530.339
530.499
530.494
530.396
530.304
530.253
530.233
530.228
530.228
530.229
530.229
530.228
530.228
530.228
530.228
530.229
530.229
530.228
530.228
530.233
530.253
530.304
530.396
530.494
530.499
530.339
530.363
531.668
531.667
530.361
530.337
530.497
530.493
530.395
530.304
530.253
530.233
530.228
530.229
530.229
530.229
530.229
530.229
530.229
530.229
530.229
530.229
530.229
530.228
530.233
530.253
530.304
530.395
530.493
530.497
530.337
530.361
531.667
535.243
535.243
531.666
530.36
530.336
530.496
530.493
530.395
530.304
530.253
530.233
530.228
530.229
530.229
530.229
530.229
530.229
530.229
530.229
530.229
530.229
530.229
530.228
530.233
530.253
530.304
530.395
530.493
530.496
530.336
530.36
531.666
531.665
530.359
530.336
530.496
530.492
530.395
530.304
530.252
530.233
530.228
530.228
530.229
530.229
530.229
530.228
530.229
530.228
530.229
530.229
530.228
530.228
530.233
530.252
530.304
530.395
530.492
530.496
530.336
530.359
531.665
535.242
535.242
531.665
530.359
530.335
530.496
530.492
530.394
530.304
530.252
530.233
530.228
530.228
530.229
530.229
530.229
530.229
530.228
530.229
530.229
530.229
530.228
530.228
530.233
530.252
530.303
530.394
530.492
530.495
530.335
530.359
531.665
531.665
530.359
530.335
530.495
530.492
530.394
530.304
530.252
530.233
530.228
530.228
530.229
530.229
530.229
530.228
530.229
530.229
530.229
530.229
530.228
530.228
530.233
530.252
530.303
530.394
530.492
530.495
530.335
530.359
531.665
535.242
535.242
531.665
530.359
530.336
530.496
530.492
530.395
530.304
530.252
530.233
530.228
530.228
530.229
530.229
530.229
530.228
530.228
530.229
530.229
530.229
530.228
530.228
530.233
530.252
530.304
530.395
530.492
530.496
530.336
530.359
531.665
531.666
530.36
530.336
530.496
530.493
530.395
530.304
530.253
530.233
530.228
530.229
530.229
530.229
530.229
530.229
530.229
530.229
530.229
530.229
530.229
530.228
530.233
530.253
530.304
530.395
530.493
530.496
530.336
530.36
531.666
535.243
535.243
531.667
530.361
530.337
530.497
530.493
530.395
530.304
530.253
530.233
530.228
530.229
530.229
530.229
530.229
530.229
530.229
530.229
530.229
530.229
530.229
530.228
530.233
530.253
530.304
530.395
530.493
530.497
530.337
530.361
531.667
531.668
530.363
530.339
530.499
530.494
530.396
530.304
530.253
530.233
530.228
530.228
530.229
530.229
530.228
530.228
530.228
530.228
530.229
530.229
530.228
530.228
530.233
530.253
530.304
530.396
530.494
530.499
530.339
530.363
531.668
535.244
535.249
531.674
530.369
530.345
530.504
530.498
530.399
530.306
530.254
530.233
530.228
530.228
530.228
530.229
530.228
530.228
530.228
530.228
530.229
530.229
530.228
530.228
530.233
530.254
530.306
530.399
530.498
530.503
530.345
530.369
531.674
531.69
530.386
530.362
530.52
530.512
530.41
530.315
530.261
530.239
530.233
530.233
530.233
530.233
530.233
530.232
530.233
530.233
530.233
530.233
530.233
530.233
530.239
530.261
530.315
530.41
530.512
530.52
530.362
530.386
531.69
535.264
535.31
531.735
530.433
530.409
530.565
530.552
530.444
530.343
530.285
530.261
530.254
530.253
530.253
530.253
530.253
530.252
530.252
530.253
530.253
530.253
530.253
530.254
530.261
530.285
530.343
530.444
530.552
530.565
530.409
530.433
531.735
531.832
530.534
530.511
530.662
530.64
530.52
530.409
530.343
530.315
530.306
530.304
530.304
530.304
530.304
530.303
530.303
530.304
530.304
530.304
530.304
530.306
530.315
530.343
530.409
530.52
530.64
530.662
530.511
530.534
531.832
535.403
535.588
532.004
530.71
530.688
530.828
530.787
530.647
530.52
530.444
530.41
530.399
530.396
530.395
530.395
530.395
530.394
530.394
530.395
530.395
530.395
530.396
530.399
530.41
530.444
530.52
530.647
530.787
530.828
530.688
530.71
532.004
532.231
530.946
530.912
531.026
530.954
530.787
530.64
530.552
530.512
530.498
530.494
530.493
530.493
530.492
530.492
530.492
530.492
530.493
530.493
530.494
530.498
530.512
530.552
530.64
530.787
530.954
531.026
530.912
530.946
532.231
535.771
536.119
532.478
531.155
531.077
531.142
531.026
530.828
530.662
530.565
530.52
530.504
530.499
530.497
530.496
530.496
530.496
530.495
530.496
530.496
530.497
530.499
530.504
530.52
530.565
530.662
530.828
531.026
531.142
531.077
531.155
532.478
532.62
531.252
531.089
531.077
530.912
530.688
530.511
530.409
530.362
530.345
530.339
530.337
530.336
530.336
530.335
530.336
530.336
530.336
530.337
530.339
530.345
530.362
530.409
530.511
530.688
530.912
531.077
531.089
531.252
532.62
536.155
536.857
533.047
531.544
531.252
531.155
530.946
530.71
530.534
530.433
530.386
530.369
530.363
530.361
530.36
530.359
530.359
530.359
530.36
530.36
530.361
530.363
530.369
530.386
530.433
530.534
530.71
530.946
531.155
531.252
531.544
533.047
534.463
533.047
532.62
532.478
532.23
532.004
531.832
531.736
531.691
531.674
531.668
531.667
531.666
531.665
531.665
531.665
531.665
531.666
531.667
531.668
531.674
531.691
531.736
531.832
532.004
532.23
532.478
532.62
533.047
534.463
537.825
540.695
537.825
536.857
536.155
536.119
535.771
535.588
535.403
535.31
535.264
535.249
535.245
535.243
535.243
535.242
535.242
535.242
535.242
535.243
535.243
535.245
535.249
535.264
535.31
535.403
535.588
535.771
536.119
536.155
536.857
537.825
534.552
536.049
535.435
534.763
534.531
534.205
534.004
533.822
533.706
533.635
533.597
533.576
533.563
533.556
533.551
533.549
533.549
533.551
533.556
533.563
533.576
533.597
533.635
533.706
533.822
534.004
534.206
534.532
534.763
535.436
536.05
537.003
537.23
532.127
527.337
522.797
518.465
514.275
510.23
506.29
502.437
498.646
494.901
491.188
487.5
483.831
480.177
476.535
472.903
469.28
465.664
462.055
458.451
454.852
451.258
447.669
444.084
440.503
436.926
433.354
429.786
426.223
422.666
419.114
415.57
412.033
408.505
404.989
401.485
397.997
394.529
391.084
387.67
384.294
380.967
377.703
374.522
371.449
368.516
365.762
363.23
360.956
358.967
357.268
355.848
354.68
353.73
352.964
352.351
351.861
351.471
351.161
350.915
350.718
350.562
350.436
350.334
350.251
350.181
350.122
350.069
350.021
349.973
349.924
349.871
349.811
349.741
349.657
349.555
349.43
349.276
349.087
348.857
348.58
348.251
347.871
347.44
346.966
346.455
345.916
345.356
344.779
344.191
343.594
342.992
342.386
341.777
341.168
340.559
339.951
339.344
338.74
338.139
337.541
336.947
336.357
335.772
335.191
334.615
334.045
333.48
332.921
332.369
331.822
331.282
330.749
330.222
329.703
329.191
328.686
328.189
327.7
327.218
326.745
326.28
325.824
325.376
324.937
324.507
324.085
323.673
323.27
322.877
322.493
322.118
321.754
321.399
321.054
320.719
320.395
320.08
319.776
319.482
319.199
318.927
318.665
318.413
318.173
317.943
317.724
317.517
317.32
317.134
316.96
316.796
316.644
316.503
316.374
316.256
316.148
316.053
315.968
315.895
315.834
315.786
315.749
315.725
315.71
315.703
315.703
315.703
315.703
315.703
315.703
315.703
315.703
315.703
315.703
315.703
315.703
315.703
315.703
315.703
315.703
315.703
315.703
315.704
315.704
315.704
315.704
315.704
315.704
315.704
315.704
315.704
315.704
315.704
315.704
315.704
315.704
315.704
315.704
315.704
315.704
315.704
315.704
315.704
315.704
315.704
315.704
315.704
315.704
315.704
315.704
315.704
315.704
315.704
315.704
315.704
315.704
315.704
315.704
315.703
315.703
315.703
315.703
315.703
315.703
315.703
315.703
315.703
315.703
315.703
315.703
315.703
315.703
315.703
315.703
315.703
315.703
315.703
315.703
315.703
315.703
315.703
315.703
315.703
315.703
315.702
315.702
315.702
315.702
315.702
315.702
315.702
315.702
315.702
315.702
315.702
315.702
315.702
315.702
315.702
315.702
315.702
315.701
315.701
315.701
315.701
315.701
315.701
315.702
315.702
315.702
315.702
315.702
315.702
315.702
315.702
315.702
315.702
315.702
315.702
315.702
315.702
315.702
315.702
315.702
315.702
315.702
315.702
315.702
315.703
315.703
315.703
315.703
315.703
315.703
315.703
315.703
315.703
315.703
315.703
315.703
315.703
315.703
315.703
315.702
315.702
315.702
315.702
315.702
315.702
315.702
315.702
315.702
315.702
315.702
315.702
315.702
315.702
315.702
315.702
315.702
315.702
315.702
315.702
315.702
315.701
315.701
315.701
315.701
315.701
315.701
315.701
315.702
315.702
315.702
315.702
315.702
315.702
315.702
315.702
315.702
315.702
315.702
315.702
315.702
315.702
315.702
315.702
315.702
315.702
315.702
315.702
315.702
315.702
315.703
315.703
315.703
315.703
315.703
315.703
315.703
315.703
315.703
315.703
315.703
315.703
315.703
315.703
315.703
315.702
315.702
315.702
315.702
315.702
315.702
315.702
315.702
315.702
315.702
315.702
315.702
315.702
315.702
315.702
315.702
315.702
315.702
315.702
315.702
315.702
315.702
315.701
315.701
315.702
315.702
315.702
315.702
315.702
315.702
315.702
315.702
315.702
315.702
315.702
315.702
315.702
315.702
315.702
315.702
315.702
315.702
315.702
315.702
315.702
315.702
315.702
315.703
315.703
315.703
315.703
315.703
315.703
315.703
315.703
315.703
315.703
315.703
315.703
315.703
315.703
315.703
315.703
315.703
315.703
315.703
315.702
315.702
315.702
315.702
315.702
315.702
315.702
315.702
315.702
315.702
315.702
315.702
315.702
315.702
315.702
315.702
315.702
315.702
315.702
315.702
315.702
315.702
315.702
315.702
315.702
315.702
315.702
315.702
315.702
315.702
315.702
315.702
315.702
315.702
315.702
315.702
315.702
315.702
315.702
315.702
315.702
315.702
315.702
315.702
315.703
315.703
315.703
315.703
315.703
315.703
315.703
315.703
315.703
315.703
315.703
315.703
315.703
315.703
315.703
315.703
315.703
315.703
315.703
315.703
315.703
315.702
315.702
315.702
315.702
315.702
315.702
315.702
315.702
315.702
315.702
315.702
315.702
315.702
315.702
315.702
315.702
315.702
315.702
315.702
315.702
315.702
315.702
315.702
315.702
315.702
315.702
315.702
315.702
315.702
315.702
315.702
315.702
315.702
315.702
315.702
315.702
315.702
315.702
315.702
315.702
315.702
315.703
315.703
315.703
315.703
315.703
315.703
315.703
315.703
315.703
315.703
315.703
315.703
315.703
315.703
315.703
315.703
315.703
315.703
315.703
315.703
315.703
315.703
315.703
315.703
315.703
315.702
315.702
315.702
315.702
315.702
315.702
315.702
315.702
315.702
315.702
315.702
315.702
315.702
315.702
315.702
315.702
315.702
315.702
315.702
315.702
315.702
315.702
315.702
315.702
315.702
315.702
315.702
315.702
315.702
315.702
315.702
315.702
315.702
315.702
315.702
315.702
315.702
315.703
315.703
315.703
315.703
315.703
315.703
315.703
315.703
315.703
315.703
315.703
315.703
315.703
315.703
315.703
315.703
315.703
315.703
315.703
315.703
315.703
315.703
315.703
315.703
315.703
315.703
315.703
315.703
315.703
315.702
315.702
315.702
315.702
315.702
315.702
315.702
315.702
315.702
315.702
315.702
315.702
315.702
315.702
315.702
315.702
315.702
315.702
315.702
315.702
315.702
315.702
315.702
315.702
315.702
315.702
315.702
315.702
315.702
315.702
315.702
315.702
315.703
315.703
315.703
315.703
315.703
315.703
315.703
315.703
315.703
315.703
315.703
315.703
315.703
315.703
315.703
315.703
315.703
315.703
315.703
315.703
315.703
315.703
315.703
315.703
315.703
315.703
315.703
315.703
315.703
315.703
315.703
315.703
315.703
315.703
315.703
315.703
315.702
315.702
315.702
315.702
315.702
315.702
315.702
315.702
315.702
315.702
315.702
315.702
315.702
315.702
315.702
315.702
315.702
315.702
315.702
315.702
315.702
315.702
315.702
315.702
315.702
315.703
315.703
315.703
315.703
315.703
315.703
315.703
315.703
315.703
315.703
315.703
315.703
315.703
315.703
315.703
315.703
315.703
315.703
315.703
315.703
315.703
315.703
315.703
315.703
315.703
315.703
315.703
315.703
315.703
315.703
315.703
315.703
315.703
315.703
315.703
315.703
315.703
315.703
315.703
315.703
315.703
315.703
315.702
315.702
315.702
315.702
315.702
315.702
315.702
315.702
315.702
315.702
315.702
315.702
315.702
315.702
315.702
315.702
315.702
315.702
315.703
315.703
315.703
315.703
315.703
315.703
315.703
315.703
315.703
315.703
315.703
315.703
315.703
315.703
315.703
315.703
315.703
315.703
315.703
315.703
315.703
315.703
315.703
315.703
315.703
315.703
315.703
315.703
315.703
315.703
315.703
315.703
315.703
315.703
315.703
315.703
315.703
315.703
315.703
315.703
315.703
315.703
315.703
315.703
315.703
315.703
315.703
315.703
315.703
315.702
315.702
315.702
315.702
315.702
315.702
315.702
315.702
315.702
315.702
315.702
315.702
315.703
315.703
315.703
315.703
315.703
315.703
315.703
315.703
315.703
315.703
315.703
315.703
315.703
315.703
315.703
315.703
315.703
315.703
315.703
315.703
315.703
315.703
315.703
315.703
315.703
315.703
315.703
315.704
315.704
315.704
315.704
315.704
315.704
315.703
315.703
315.703
315.703
315.703
315.703
315.703
315.703
315.703
315.703
315.703
315.703
315.703
315.703
315.703
315.703
315.703
315.703
315.703
315.703
315.703
315.703
315.703
315.702
315.702
315.702
315.703
315.703
315.703
315.703
315.703
315.703
315.703
315.703
315.703
315.703
315.703
315.703
315.703
315.703
315.703
315.703
315.703
315.703
315.703
315.703
315.703
315.703
315.703
315.703
315.704
315.704
315.704
315.704
315.704
315.704
315.704
315.704
315.704
315.704
315.704
315.704
315.704
315.704
315.704
315.704
315.704
315.703
315.703
315.703
315.703
315.703
315.703
315.703
315.703
315.703
315.703
315.703
315.703
315.703
315.703
315.703
315.703
315.703
315.703
315.703
315.703
315.703
315.703
315.703
315.703
315.703
315.703
315.703
315.703
315.703
315.703
315.703
315.703
315.703
315.703
315.703
315.703
315.703
315.703
315.703
315.703
315.703
315.703
315.703
315.703
315.704
315.704
315.704
315.704
315.704
315.704
315.704
315.704
315.704
315.704
315.704
315.704
315.704
315.704
315.704
315.704
315.704
315.704
315.704
315.704
315.704
315.704
315.704
315.703
315.703
315.703
315.703
315.703
315.703
315.703
315.703
315.703
315.703
315.703
315.703
315.703
315.703
315.703
315.703
315.703
315.703
315.703
315.703
315.703
315.703
315.703
315.703
315.703
315.703
315.703
315.703
315.703
315.703
315.703
315.703
315.703
315.703
315.703
315.703
315.703
315.703
315.703
315.704
315.704
315.704
315.704
315.704
315.704
315.704
315.704
315.704
315.704
315.704
315.704
315.704
315.704
315.704
315.704
315.704
315.704
315.704
315.704
315.704
315.704
315.704
315.704
315.704
315.704
315.704
315.704
315.703
315.703
315.703
315.703
315.703
315.703
315.703
315.703
315.703
315.703
315.703
315.703
315.703
315.703
315.703
315.703
315.703
315.703
315.703
315.703
315.703
315.703
315.703
315.703
315.703
315.703
315.703
315.703
315.703
315.703
315.703
315.703
315.703
315.704
315.704
315.704
315.704
315.704
315.704
315.704
315.704
315.704
315.704
315.704
315.704
315.704
315.704
315.704
315.704
315.704
315.704
315.704
315.704
315.704
315.704
315.704
315.704
315.704
315.704
315.704
315.704
315.704
315.704
315.704
315.704
315.704
315.703
315.703
315.703
315.703
315.703
315.703
315.703
315.703
315.703
315.703
315.703
315.703
315.703
315.703
315.703
315.703
315.703
315.703
315.703
315.703
315.703
315.703
315.703
315.703
315.703
315.703
315.703
315.703
315.703
315.704
315.704
315.704
315.704
315.704
315.704
315.704
315.704
315.704
315.704
315.704
315.704
315.704
315.704
315.704
315.704
315.704
315.704
315.704
315.704
315.704
315.704
315.704
315.704
315.704
315.704
315.704
315.704
315.704
315.704
315.704
315.704
315.704
315.704
315.704
315.704
315.703
315.703
315.703
315.703
315.703
315.703
315.703
315.703
315.703
315.703
315.703
315.703
315.703
315.703
315.703
315.703
315.703
315.703
315.703
315.703
315.703
315.703
315.703
315.703
315.703
315.703
315.703
315.704
315.704
315.704
315.704
315.704
315.704
315.704
315.704
315.704
315.704
315.704
315.704
315.704
315.704
315.704
315.704
315.704
315.704
315.704
315.704
315.704
315.704
315.704
315.704
315.704
315.704
315.704
315.704
315.704
315.704
315.704
315.704
315.704
315.704
315.704
315.704
315.704
315.704
315.703
315.703
315.703
315.703
315.703
315.703
315.703
315.703
315.703
315.703
315.703
315.703
315.703
315.703
315.703
315.703
315.703
315.703
315.703
315.703
315.703
315.703
315.703
315.703
315.703
315.703
315.704
315.704
315.704
315.704
315.704
315.704
315.704
315.704
315.704
315.704
315.704
315.704
315.704
315.704
315.704
315.704
315.704
315.704
315.704
315.711
315.711
315.711
315.726
315.751
315.787
315.836
315.897
315.97
316.054
316.15
316.257
316.375
316.505
316.646
316.798
316.961
317.136
317.321
317.518
317.726
317.945
318.174
318.415
318.666
318.928
319.201
319.484
319.778
320.082
320.396
320.721
321.056
321.401
321.755
322.12
322.494
322.878
323.272
323.675
324.087
324.508
324.939
325.378
325.825
326.282
326.747
327.22
327.701
328.19
328.687
329.192
329.704
330.224
330.75
331.283
331.823
332.37
332.923
333.482
334.046
334.617
335.192
335.773
336.359
336.948
337.543
338.14
338.741
339.345
339.952
340.56
341.169
341.778
342.386
342.992
343.595
344.191
344.78
345.356
345.917
346.456
346.966
347.44
347.871
348.251
348.58
348.857
349.087
349.276
349.43
349.555
349.657
349.741
349.811
349.871
349.924
349.973
350.021
350.069
350.122
350.181
350.251
350.334
350.436
350.562
350.718
350.915
351.161
351.471
351.861
352.351
352.964
353.73
354.68
355.848
357.269
358.967
360.956
363.23
365.762
368.516
371.449
374.522
377.704
380.967
384.294
387.67
391.084
394.529
397.997
401.485
404.989
408.506
412.033
415.57
419.115
422.666
426.223
429.786
433.354
436.926
440.503
444.084
447.669
451.259
454.852
458.451
462.055
465.664
469.28
472.903
476.535
480.177
483.831
487.5
491.188
494.901
498.646
502.437
506.29
510.23
514.275
518.465
522.797
527.337
532.126
531.796
527.091
522.638
518.355
514.211
510.188
506.264
502.42
498.634
494.891
491.181
487.494
483.826
480.173
476.532
472.901
469.278
465.662
462.053
458.45
454.851
451.257
447.668
444.083
440.502
436.925
433.352
429.784
426.221
422.663
419.111
415.566
412.028
408.499
404.981
401.475
397.984
394.512
391.063
387.642
384.256
380.915
377.63
374.422
371.314
368.341
365.547
362.981
360.69
358.703
357.024
355.633
354.497
353.578
352.841
352.251
351.782
351.408
351.111
350.875
350.687
350.537
350.417
350.319
350.24
350.173
350.117
350.066
350.02
349.974
349.928
349.877
349.819
349.752
349.672
349.574
349.454
349.305
349.123
348.9
348.629
348.304
347.924
347.49
347.009
346.49
345.943
345.376
344.793
344.201
343.602
342.997
342.39
341.781
341.171
340.562
339.953
339.347
338.742
338.141
337.543
336.949
336.359
335.773
335.193
334.617
334.047
333.482
332.923
332.37
331.824
331.283
330.75
330.224
329.704
329.192
328.688
328.19
327.701
327.22
326.747
326.282
325.825
325.378
324.939
324.508
324.087
323.675
323.272
322.878
322.494
322.12
321.755
321.401
321.056
320.721
320.396
320.082
319.778
319.484
319.201
318.928
318.666
318.415
318.174
317.945
317.726
317.518
317.321
317.136
316.961
316.798
316.646
316.505
316.375
316.257
316.15
316.054
315.97
315.897
315.836
315.787
315.751
315.726
315.726
315.711
315.711
315.711
315.711
315.711
315.711
315.711
315.711
315.711
315.711
315.711
315.711
315.711
315.71
315.71
315.71
315.71
315.71
315.71
315.71
315.71
315.71
315.71
315.71
315.71
315.71
315.71
315.71
315.71
315.71
315.71
315.71
315.725
315.75
315.786
315.835
315.896
315.968
316.053
316.149
316.256
316.374
316.504
316.645
316.797
316.96
317.135
317.321
317.517
317.725
317.944
318.173
318.414
318.665
318.927
319.2
319.483
319.777
320.081
320.395
320.72
321.055
321.4
321.755
322.119
322.494
322.878
323.271
323.674
324.086
324.507
324.938
325.377
325.825
326.281
326.746
327.219
327.7
328.19
328.687
329.191
329.703
330.223
330.749
331.283
331.823
332.369
332.922
333.481
334.046
334.616
335.192
335.772
336.358
336.948
337.542
338.14
338.741
339.345
339.951
340.559
341.168
341.778
342.386
342.992
343.595
344.191
344.78
345.356
345.917
346.456
346.966
347.44
347.871
348.251
348.58
348.857
349.087
349.276
349.43
349.555
349.657
349.741
349.811
349.871
349.924
349.973
350.021
350.069
350.122
350.181
350.251
350.334
350.436
350.562
350.718
350.915
351.161
351.471
351.861
352.35
352.964
353.73
354.68
355.848
357.269
358.967
360.956
363.23
365.763
368.517
371.449
374.522
377.704
380.967
384.294
387.67
391.084
394.528
397.997
401.485
404.988
408.505
412.033
415.57
419.114
422.666
426.223
429.786
433.353
436.926
440.502
444.083
447.669
451.258
454.852
458.451
462.054
465.664
469.28
472.903
476.534
480.176
483.83
487.5
491.188
494.901
498.646
502.437
506.29
510.23
514.275
518.465
522.797
527.337
532.126
537.229
537.002
531.796
527.091
522.638
518.355
514.211
510.188
506.264
502.419
498.634
494.891
491.18
487.494
483.826
480.173
476.531
472.9
469.278
465.662
462.053
458.45
454.851
451.257
447.668
444.083
440.502
436.925
433.353
429.786
426.223
422.665
419.114
415.569
412.033
408.505
404.988
401.485
397.997
394.528
391.084
387.67
384.295
380.968
377.706
374.527
371.456
368.525
365.772
363.24
360.965
358.974
357.274
355.852
354.682
353.731
352.965
352.351
351.861
351.471
351.161
350.915
350.718
350.562
350.436
350.334
350.251
350.181
350.122
350.069
350.021
349.973
349.924
349.871
349.811
349.741
349.657
349.555
349.429
349.275
349.086
348.856
348.578
348.249
347.868
347.438
346.964
346.453
345.915
345.355
344.779
344.191
343.594
342.992
342.386
341.778
341.168
340.559
339.951
339.345
338.741
338.14
337.542
336.948
336.358
335.772
335.192
334.616
334.046
333.481
332.922
332.369
331.823
331.283
330.749
330.223
329.703
329.191
328.687
328.19
327.7
327.219
326.746
326.281
325.825
325.377
324.938
324.507
324.086
323.674
323.271
322.878
322.494
322.119
321.755
321.4
321.055
320.72
320.395
320.081
319.777
319.483
319.2
318.927
318.665
318.414
318.173
317.944
317.725
317.517
317.321
317.135
316.96
316.797
316.645
316.504
316.374
316.256
316.149
316.053
315.969
315.896
315.835
315.786
315.75
315.725
315.71
315.71
315.71
315.71
315.71
315.71
315.71
315.71
315.71
315.71
315.709
315.709
315.709
315.709
315.709
315.709
315.709
315.709
315.709
315.709
315.709
315.709
315.709
315.709
315.708
315.708
315.708
315.708
315.708
315.708
315.708
315.708
315.708
315.723
315.748
315.784
315.833
315.894
315.967
316.051
316.147
316.254
316.373
316.502
316.643
316.795
316.959
317.133
317.319
317.516
317.723
317.942
318.172
318.412
318.663
318.925
319.198
319.481
319.775
320.079
320.393
320.718
321.053
321.398
321.753
322.117
322.492
322.876
323.269
323.672
324.084
324.505
324.936
325.375
325.823
326.279
326.744
327.217
327.698
328.188
328.685
329.189
329.702
330.221
330.748
331.281
331.821
332.368
332.92
333.479
334.044
334.615
335.19
335.771
336.357
336.947
337.541
338.138
338.74
339.344
339.95
340.558
341.167
341.777
342.385
342.991
343.594
344.191
344.779
345.356
345.916
346.455
346.966
347.44
347.871
348.251
348.579
348.857
349.087
349.276
349.43
349.555
349.657
349.741
349.811
349.871
349.924
349.973
350.021
350.069
350.122
350.181
350.251
350.334
350.436
350.562
350.718
350.915
351.161
351.471
351.861
352.35
352.964
353.73
354.68
355.848
357.269
358.967
360.956
363.23
365.763
368.516
371.449
374.522
377.703
380.967
384.294
387.67
391.084
394.528
397.997
401.484
404.988
408.505
412.033
415.569
419.114
422.665
426.223
429.786
433.353
436.926
440.502
444.083
447.668
451.258
454.852
458.45
462.054
465.664
469.279
472.903
476.534
480.176
483.83
487.499
491.188
494.901
498.646
502.437
506.29
510.23
514.275
518.465
522.797
527.337
532.127
537.23
537.003
531.796
527.091
522.638
518.355
514.21
510.187
506.264
502.419
498.633
494.891
491.18
487.493
483.825
480.172
476.531
472.9
469.277
465.662
462.053
458.449
454.85
451.257
447.667
444.082
440.501
436.924
433.351
429.783
426.22
422.662
419.11
415.565
412.027
408.498
404.98
401.474
397.984
394.512
391.063
387.642
384.256
380.915
377.631
374.423
371.315
368.342
365.549
362.983
360.692
358.705
357.025
355.634
354.497
353.579
352.841
352.251
351.782
351.408
351.111
350.875
350.687
350.537
350.417
350.319
350.24
350.173
350.117
350.066
350.02
349.974
349.928
349.877
349.819
349.752
349.672
349.574
349.454
349.305
349.123
348.899
348.628
348.304
347.924
347.49
347.008
346.49
345.943
345.375
344.793
344.2
343.601
342.996
342.389
341.78
341.17
340.56
339.952
339.345
338.741
338.139
337.541
336.947
336.357
335.771
335.191
334.615
334.044
333.48
332.921
332.368
331.821
331.281
330.748
330.221
329.702
329.19
328.685
328.188
327.698
327.217
326.744
326.279
325.823
325.375
324.936
324.505
324.084
323.672
323.269
322.876
322.492
322.117
321.753
321.398
321.053
320.718
320.393
320.079
319.775
319.481
319.198
318.925
318.663
318.412
318.172
317.942
317.723
317.516
317.319
317.133
316.959
316.795
316.643
316.502
316.373
316.254
316.147
316.051
315.967
315.894
315.833
315.785
315.748
315.723
315.708
315.708
315.723
315.748
315.785
315.833
315.894
315.967
316.051
316.147
316.254
316.373
316.502
316.643
316.795
316.959
317.133
317.319
317.516
317.723
317.942
318.172
318.412
318.663
318.925
319.198
319.481
319.775
320.079
320.393
320.718
321.053
321.398
321.753
322.117
322.492
322.876
323.269
323.672
324.084
324.505
324.936
325.375
325.823
326.279
326.744
327.217
327.699
328.188
328.685
329.19
329.702
330.221
330.748
331.281
331.821
332.368
332.921
333.48
334.045
334.615
335.191
335.772
336.358
336.948
337.543
338.141
338.743
339.347
339.955
340.564
341.174
341.786
342.397
343.006
343.614
344.219
344.818
345.41
345.991
346.553
347.089
347.586
348.03
348.411
348.729
348.988
349.198
349.367
349.504
349.614
349.703
349.776
349.837
349.889
349.935
349.977
350.018
350.06