/*--------------------------------*- C++ -*----------------------------------*\
| =========                 |                                                 |
| \\      /  F ield         | OpenFOAM: The Open Source CFD Toolbox           |
|  \\    /   O peration     | Version:  2406                                  |
|   \\  /    A nd           | Website:  www.openfoam.com                      |
|    \\/     M anipulation  |                                                 |
\*---------------------------------------------------------------------------*/
FoamFile
{
    version     2.0;
    format      ascii;
    arch        "LSB;label=32;scalar=64";
    class       volVectorField;
    location    "6";
    object      U;
}
// * * * * * * * * * * * * * * * * * * * * * * * * * * * * * * * * * * * * * //

dimensions      [0 1 -1 0 0 0 0];

internalField   uniform (0 0 0);

boundaryField
{
    inlet
    {
        type            codedFixedValue;
        value           uniform (1.5 0 0);
        name            parabolicVelocity;
        code            #{
            const vectorField& Cf = patch().Cf();  // 取得邊界面的中心座標
            vectorField& field = *this;            // 取得邊界上的速度場 (vectorField)

            const scalar c = 0;       // 拋物線中心 (y=0)
            const scalar r = 0.05;      // 通道的半寬度 (y=-50mm 到 50mm)
            const scalar Umax = 1.5;  // 速度最大值1.5m/s

            forAll(Cf, faceI)
            {
                const scalar y = Cf[faceI][1];  // 取得 y 座標
                field[faceI] = vector(Umax * (1 - pow((y - c) / r, 2)), 0, 0);  // 速度在 x 方向
            }
        #};
    }
    outlet
    {
        type            zeroGradient;
    }
    heat_sink
    {
        type            fixedValue;
        value           uniform (0 0 0);
    }
    walls
    {
        type            fixedValue;
        value           uniform (0 0 0);
    }
}


// ************************************************************************* //
